<?xml version="1.0" encoding="UTF-8"?>

<!-- generated on 15/04/2015 16:12:34 by SUMO gui Version 0.19.0
<?xml version="1.0" encoding="UTF-8"?>

<configuration xmlns:xsi="http://www.w3.org/2001/XMLSchema-instance" xsi:noNamespaceSchemaLocation="http://sumo-sim.org/xsd/sumo-gui.exeConfiguration.xsd">

    <input>
        <net-file value="data/cross.net.xml"/>
        <route-files value="data/cross.rou.xml"/>
        <additional-files value="data/cross.det.xml"/>
    </input>

    <output>
        <tripinfo-output value="tripinfo.xml"/>
        <save-state.prefix value="data/state"/>
    </output>

    <time>
        <begin value="0"/>
    </time>

    <report>
        <verbose value="true"/>
        <no-step-log value="true"/>
    </report>

    <traci_server>
        <remote-port value="8873"/>
    </traci_server>

    <gui_only>
        <gui-settings-file value="data/cross.settings.xml"/>
    </gui_only>

</configuration>
-->

<tripinfos>
    <tripinfo id="SN_0" depart="0.00" departLane="53o_0" departPos="5.10" departSpeed="0.00" departDelay="0.00" arrival="87.00" arrivalLane="54i_0" arrivalPos="10.00" arrivalSpeed="12.11" duration="87.00" routeLength="998.80" waitSteps="0" rerouteNo="0" devices="tripinfo_SN_0" vType="typeWE" vaporized=""/>
    <tripinfo id="SN_4" depart="9.00" departLane="53o_0" departPos="5.10" departSpeed="0.00" departDelay="0.00" arrival="96.00" arrivalLane="54i_0" arrivalPos="10.00" arrivalSpeed="12.11" duration="87.00" routeLength="998.80" waitSteps="0" rerouteNo="0" devices="tripinfo_SN_4" vType="typeWE" vaporized=""/>
    <tripinfo id="OL_6" depart="20.00" departLane="51o_0" departPos="5.10" departSpeed="0.00" departDelay="0.00" arrival="107.00" arrivalLane="52i_0" arrivalPos="10.00" arrivalSpeed="12.11" duration="87.00" routeLength="998.80" waitSteps="0" rerouteNo="0" devices="tripinfo_OL_6" vType="typeNS" vaporized=""/>
    <tripinfo id="OL_7" depart="23.00" departLane="51o_0" departPos="5.10" departSpeed="0.00" departDelay="2.00" arrival="110.00" arrivalLane="53i_0" arrivalPos="10.00" arrivalSpeed="11.11" duration="87.00" routeLength="998.80" waitSteps="1" rerouteNo="0" devices="tripinfo_OL_7" vType="typeNS" vaporized=""/>
    <tripinfo id="OL_9" depart="28.00" departLane="51o_0" departPos="5.10" departSpeed="0.00" departDelay="0.00" arrival="115.00" arrivalLane="52i_0" arrivalPos="10.00" arrivalSpeed="12.11" duration="87.00" routeLength="998.80" waitSteps="0" rerouteNo="0" devices="tripinfo_OL_9" vType="typeNS" vaporized=""/>
    <tripinfo id="NS_1" depart="2.00" departLane="54o_0" departPos="5.10" departSpeed="0.00" departDelay="0.00" arrival="124.00" arrivalLane="53i_0" arrivalPos="10.00" arrivalSpeed="11.11" duration="122.00" routeLength="998.80" waitSteps="27" rerouteNo="0" devices="tripinfo_NS_1" vType="typeWE" vaporized=""/>
    <tripinfo id="NS_3" depart="5.00" departLane="54o_0" departPos="5.10" departSpeed="0.00" departDelay="1.00" arrival="125.00" arrivalLane="52i_0" arrivalPos="10.00" arrivalSpeed="12.11" duration="120.00" routeLength="998.80" waitSteps="24" rerouteNo="0" devices="tripinfo_NS_3" vType="typeWE" vaporized=""/>
    <tripinfo id="NS_8" depart="23.00" departLane="54o_0" departPos="5.10" departSpeed="0.00" departDelay="0.00" arrival="128.00" arrivalLane="52i_0" arrivalPos="10.00" arrivalSpeed="10.29" duration="105.00" routeLength="998.80" waitSteps="7" rerouteNo="0" devices="tripinfo_NS_8" vType="typeWE" vaporized=""/>
    <tripinfo id="NS_13" depart="40.00" departLane="54o_0" departPos="5.10" departSpeed="0.00" departDelay="2.00" arrival="128.00" arrivalLane="53i_0" arrivalPos="10.00" arrivalSpeed="12.11" duration="88.00" routeLength="998.80" waitSteps="1" rerouteNo="0" devices="tripinfo_NS_13" vType="typeWE" vaporized=""/>
    <tripinfo id="NS_10" depart="29.00" departLane="54o_0" departPos="5.10" departSpeed="0.00" departDelay="0.00" arrival="129.00" arrivalLane="52i_1" arrivalPos="10.00" arrivalSpeed="12.11" duration="100.00" routeLength="998.80" waitSteps="3" rerouteNo="0" devices="tripinfo_NS_10" vType="typeWE" vaporized=""/>
    <tripinfo id="NS_11" depart="32.00" departLane="54o_0" departPos="5.10" departSpeed="0.00" departDelay="2.00" arrival="131.00" arrivalLane="52i_0" arrivalPos="10.00" arrivalSpeed="12.11" duration="99.00" routeLength="998.80" waitSteps="2" rerouteNo="0" devices="tripinfo_NS_11" vType="typeWE" vaporized=""/>
    <tripinfo id="NS_15" depart="47.00" departLane="54o_0" departPos="5.10" departSpeed="0.00" departDelay="0.00" arrival="133.00" arrivalLane="51i_0" arrivalPos="10.00" arrivalSpeed="11.11" duration="86.00" routeLength="998.80" waitSteps="0" rerouteNo="0" devices="tripinfo_NS_15" vType="typeWE" vaporized=""/>
    <tripinfo id="NS_12" depart="36.00" departLane="54o_0" departPos="5.10" departSpeed="0.00" departDelay="5.00" arrival="134.00" arrivalLane="52i_0" arrivalPos="10.00" arrivalSpeed="12.11" duration="98.00" routeLength="998.80" waitSteps="1" rerouteNo="0" devices="tripinfo_NS_12" vType="typeWE" vaporized=""/>
    <tripinfo id="LO_5" depart="15.00" departLane="52o_0" departPos="5.10" departSpeed="0.00" departDelay="0.00" arrival="142.00" arrivalLane="51i_1" arrivalPos="10.00" arrivalSpeed="11.11" duration="127.00" routeLength="998.80" waitSteps="32" rerouteNo="0" devices="tripinfo_LO_5" vType="typeNS" vaporized=""/>
    <tripinfo id="LO_2" depart="2.00" departLane="52o_0" departPos="5.10" departSpeed="0.00" departDelay="0.00" arrival="142.00" arrivalLane="51i_0" arrivalPos="10.00" arrivalSpeed="11.11" duration="140.00" routeLength="998.80" waitSteps="45" rerouteNo="0" devices="tripinfo_LO_2" vType="typeNS" vaporized=""/>
    <tripinfo id="LO_24" depart="66.00" departLane="52o_0" departPos="5.10" departSpeed="0.00" departDelay="0.00" arrival="155.00" arrivalLane="53i_0" arrivalPos="10.00" arrivalSpeed="12.11" duration="89.00" routeLength="998.80" waitSteps="0" rerouteNo="0" devices="tripinfo_LO_24" vType="typeNS" vaporized=""/>
    <tripinfo id="SN_27" depart="74.00" departLane="53o_0" departPos="5.10" departSpeed="0.00" departDelay="0.00" arrival="161.00" arrivalLane="51i_0" arrivalPos="10.00" arrivalSpeed="12.11" duration="87.00" routeLength="998.80" waitSteps="0" rerouteNo="0" devices="tripinfo_SN_27" vType="typeWE" vaporized=""/>
    <tripinfo id="SN_31" depart="84.00" departLane="53o_0" departPos="5.10" departSpeed="0.00" departDelay="0.00" arrival="173.00" arrivalLane="51i_0" arrivalPos="10.00" arrivalSpeed="12.11" duration="89.00" routeLength="998.80" waitSteps="0" rerouteNo="0" devices="tripinfo_SN_31" vType="typeWE" vaporized=""/>
    <tripinfo id="OL_16" depart="48.00" departLane="51o_0" departPos="5.10" departSpeed="0.00" departDelay="1.00" arrival="178.00" arrivalLane="53i_0" arrivalPos="10.00" arrivalSpeed="12.11" duration="130.00" routeLength="998.80" waitSteps="35" rerouteNo="0" devices="tripinfo_OL_16" vType="typeNS" vaporized=""/>
    <tripinfo id="OL_14" depart="45.00" departLane="51o_0" departPos="5.10" departSpeed="0.00" departDelay="0.00" arrival="179.00" arrivalLane="54i_0" arrivalPos="10.00" arrivalSpeed="12.11" duration="134.00" routeLength="998.80" waitSteps="38" rerouteNo="0" devices="tripinfo_OL_14" vType="typeNS" vaporized=""/>
    <tripinfo id="OL_17" depart="52.00" departLane="51o_0" departPos="5.10" departSpeed="0.00" departDelay="1.00" arrival="181.00" arrivalLane="53i_0" arrivalPos="10.00" arrivalSpeed="9.96" duration="129.00" routeLength="998.80" waitSteps="32" rerouteNo="0" devices="tripinfo_OL_17" vType="typeNS" vaporized=""/>
    <tripinfo id="NS_18" depart="53.00" departLane="54o_0" departPos="5.10" departSpeed="0.00" departDelay="0.00" arrival="196.00" arrivalLane="53i_0" arrivalPos="10.00" arrivalSpeed="11.11" duration="143.00" routeLength="998.80" waitSteps="48" rerouteNo="0" devices="tripinfo_NS_18" vType="typeWE" vaporized=""/>
    <tripinfo id="NS_19" depart="56.00" departLane="54o_0" departPos="5.10" departSpeed="0.00" departDelay="2.00" arrival="197.00" arrivalLane="52i_0" arrivalPos="10.00" arrivalSpeed="12.11" duration="141.00" routeLength="998.80" waitSteps="45" rerouteNo="0" devices="tripinfo_NS_19" vType="typeWE" vaporized=""/>
    <tripinfo id="NS_20" depart="60.00" departLane="54o_0" departPos="5.10" departSpeed="0.00" departDelay="2.00" arrival="198.00" arrivalLane="51i_0" arrivalPos="10.00" arrivalSpeed="12.11" duration="138.00" routeLength="998.80" waitSteps="42" rerouteNo="0" devices="tripinfo_NS_20" vType="typeWE" vaporized=""/>
    <tripinfo id="NS_21" depart="64.00" departLane="54o_0" departPos="5.10" departSpeed="0.00" departDelay="2.00" arrival="200.00" arrivalLane="52i_0" arrivalPos="10.00" arrivalSpeed="10.29" duration="136.00" routeLength="998.80" waitSteps="38" rerouteNo="0" devices="tripinfo_NS_21" vType="typeWE" vaporized=""/>
    <tripinfo id="NS_22" depart="68.00" departLane="54o_0" departPos="5.10" departSpeed="0.00" departDelay="5.00" arrival="201.00" arrivalLane="53i_0" arrivalPos="10.00" arrivalSpeed="12.11" duration="133.00" routeLength="998.80" waitSteps="36" rerouteNo="0" devices="tripinfo_NS_22" vType="typeWE" vaporized=""/>
    <tripinfo id="NS_25" depart="76.00" departLane="54o_0" departPos="5.10" departSpeed="0.00" departDelay="8.00" arrival="201.00" arrivalLane="53i_1" arrivalPos="10.00" arrivalSpeed="12.11" duration="125.00" routeLength="998.80" waitSteps="28" rerouteNo="0" devices="tripinfo_NS_25" vType="typeWE" vaporized=""/>
    <tripinfo id="NS_23" depart="72.00" departLane="54o_0" departPos="5.10" departSpeed="0.00" departDelay="6.00" arrival="202.00" arrivalLane="51i_0" arrivalPos="10.00" arrivalSpeed="12.11" duration="130.00" routeLength="998.80" waitSteps="34" rerouteNo="0" devices="tripinfo_NS_23" vType="typeWE" vaporized=""/>
    <tripinfo id="NS_26" depart="80.00" departLane="54o_0" departPos="5.10" departSpeed="0.00" departDelay="7.00" arrival="203.00" arrivalLane="52i_0" arrivalPos="10.00" arrivalSpeed="12.11" duration="123.00" routeLength="998.80" waitSteps="26" rerouteNo="0" devices="tripinfo_NS_26" vType="typeWE" vaporized=""/>
    <tripinfo id="NS_30" depart="88.00" departLane="54o_0" departPos="5.10" departSpeed="0.00" departDelay="6.00" arrival="205.00" arrivalLane="51i_0" arrivalPos="10.00" arrivalSpeed="11.17" duration="117.00" routeLength="998.80" waitSteps="19" rerouteNo="0" devices="tripinfo_NS_30" vType="typeWE" vaporized=""/>
    <tripinfo id="NS_29" depart="84.00" departLane="54o_0" departPos="5.10" departSpeed="0.00" departDelay="3.00" arrival="206.00" arrivalLane="52i_0" arrivalPos="10.00" arrivalSpeed="12.11" duration="122.00" routeLength="998.80" waitSteps="23" rerouteNo="0" devices="tripinfo_NS_29" vType="typeWE" vaporized=""/>
    <tripinfo id="LO_32" depart="90.00" departLane="52o_0" departPos="5.10" departSpeed="0.00" departDelay="0.00" arrival="214.00" arrivalLane="51i_1" arrivalPos="10.00" arrivalSpeed="11.11" duration="124.00" routeLength="998.80" waitSteps="29" rerouteNo="0" devices="tripinfo_LO_32" vType="typeNS" vaporized=""/>
    <tripinfo id="LO_28" depart="78.00" departLane="52o_0" departPos="5.10" departSpeed="0.00" departDelay="0.00" arrival="214.00" arrivalLane="51i_0" arrivalPos="10.00" arrivalSpeed="11.11" duration="136.00" routeLength="998.80" waitSteps="41" rerouteNo="0" devices="tripinfo_LO_28" vType="typeNS" vaporized=""/>
    <tripinfo id="LO_33" depart="95.00" departLane="52o_0" departPos="5.10" departSpeed="0.00" departDelay="0.00" arrival="217.00" arrivalLane="51i_0" arrivalPos="10.00" arrivalSpeed="12.11" duration="122.00" routeLength="998.80" waitSteps="25" rerouteNo="0" devices="tripinfo_LO_33" vType="typeNS" vaporized=""/>
    <tripinfo id="LO_46" depart="120.00" departLane="52o_0" departPos="5.10" departSpeed="0.00" departDelay="0.00" arrival="217.00" arrivalLane="51i_1" arrivalPos="10.00" arrivalSpeed="12.11" duration="97.00" routeLength="998.80" waitSteps="0" rerouteNo="0" devices="tripinfo_LO_46" vType="typeNS" vaporized=""/>
    <tripinfo id="LO_39" depart="110.00" departLane="52o_0" departPos="5.10" departSpeed="0.00" departDelay="0.00" arrival="218.00" arrivalLane="54i_0" arrivalPos="10.00" arrivalSpeed="12.11" duration="108.00" routeLength="998.80" waitSteps="12" rerouteNo="0" devices="tripinfo_LO_39" vType="typeNS" vaporized=""/>
    <tripinfo id="SN_40" depart="113.00" departLane="53o_0" departPos="5.10" departSpeed="0.00" departDelay="0.00" arrival="232.00" arrivalLane="52i_0" arrivalPos="10.00" arrivalSpeed="12.11" duration="119.00" routeLength="998.80" waitSteps="24" rerouteNo="0" devices="tripinfo_SN_40" vType="typeWE" vaporized=""/>
    <tripinfo id="SN_34" depart="98.00" departLane="53o_0" departPos="5.10" departSpeed="0.00" departDelay="0.00" arrival="233.00" arrivalLane="51i_0" arrivalPos="10.00" arrivalSpeed="12.11" duration="135.00" routeLength="998.80" waitSteps="39" rerouteNo="0" devices="tripinfo_SN_34" vType="typeWE" vaporized=""/>
    <tripinfo id="SN_43" depart="116.00" departLane="53o_0" departPos="5.10" departSpeed="0.00" departDelay="1.00" arrival="235.00" arrivalLane="52i_0" arrivalPos="10.00" arrivalSpeed="9.96" duration="119.00" routeLength="998.80" waitSteps="22" rerouteNo="0" devices="tripinfo_SN_43" vType="typeWE" vaporized=""/>
    <tripinfo id="SN_52" depart="134.00" departLane="53o_0" departPos="5.10" departSpeed="0.00" departDelay="0.00" arrival="236.00" arrivalLane="51i_0" arrivalPos="10.00" arrivalSpeed="10.29" duration="102.00" routeLength="998.80" waitSteps="4" rerouteNo="0" devices="tripinfo_SN_52" vType="typeWE" vaporized=""/>
    <tripinfo id="SN_57" depart="150.00" departLane="53o_0" departPos="5.10" departSpeed="0.00" departDelay="0.00" arrival="237.00" arrivalLane="54i_0" arrivalPos="10.00" arrivalSpeed="12.11" duration="87.00" routeLength="998.80" waitSteps="0" rerouteNo="0" devices="tripinfo_SN_57" vType="typeWE" vaporized=""/>
    <tripinfo id="SN_53" depart="137.00" departLane="53o_0" departPos="5.10" departSpeed="0.00" departDelay="1.00" arrival="237.00" arrivalLane="51i_1" arrivalPos="10.00" arrivalSpeed="12.11" duration="100.00" routeLength="998.80" waitSteps="3" rerouteNo="0" devices="tripinfo_SN_53" vType="typeWE" vaporized=""/>
    <tripinfo id="OL_38" depart="107.00" departLane="51o_0" departPos="5.10" departSpeed="0.00" departDelay="0.00" arrival="250.00" arrivalLane="53i_0" arrivalPos="10.00" arrivalSpeed="12.11" duration="143.00" routeLength="998.80" waitSteps="48" rerouteNo="0" devices="tripinfo_OL_38" vType="typeNS" vaporized=""/>
    <tripinfo id="OL_48" depart="123.00" departLane="51o_0" departPos="5.10" departSpeed="0.00" departDelay="0.00" arrival="250.00" arrivalLane="52i_1" arrivalPos="10.00" arrivalSpeed="11.11" duration="127.00" routeLength="998.80" waitSteps="32" rerouteNo="0" devices="tripinfo_OL_48" vType="typeNS" vaporized=""/>
    <tripinfo id="OL_56" depart="148.00" departLane="51o_0" departPos="5.10" departSpeed="0.00" departDelay="0.00" arrival="253.00" arrivalLane="54i_0" arrivalPos="10.00" arrivalSpeed="12.11" duration="105.00" routeLength="998.80" waitSteps="8" rerouteNo="0" devices="tripinfo_OL_56" vType="typeNS" vaporized=""/>
    <tripinfo id="OL_42" depart="114.00" departLane="51o_0" departPos="5.10" departSpeed="0.00" departDelay="0.00" arrival="253.00" arrivalLane="53i_0" arrivalPos="10.00" arrivalSpeed="9.96" duration="139.00" routeLength="998.80" waitSteps="42" rerouteNo="0" devices="tripinfo_OL_42" vType="typeNS" vaporized=""/>
    <tripinfo id="OL_61" depart="166.00" departLane="51o_0" departPos="5.10" departSpeed="0.00" departDelay="0.00" arrival="254.00" arrivalLane="54i_1" arrivalPos="10.00" arrivalSpeed="12.11" duration="88.00" routeLength="998.80" waitSteps="0" rerouteNo="0" devices="tripinfo_OL_61" vType="typeNS" vaporized=""/>
    <tripinfo id="OL_54" depart="145.00" departLane="51o_0" departPos="5.10" departSpeed="0.00" departDelay="0.00" arrival="254.00" arrivalLane="53i_1" arrivalPos="10.00" arrivalSpeed="12.11" duration="109.00" routeLength="998.80" waitSteps="13" rerouteNo="0" devices="tripinfo_OL_54" vType="typeNS" vaporized=""/>
    <tripinfo id="NS_36" depart="106.00" departLane="54o_0" departPos="5.10" departSpeed="0.00" departDelay="0.00" arrival="268.00" arrivalLane="53i_1" arrivalPos="10.00" arrivalSpeed="11.11" duration="162.00" routeLength="998.80" waitSteps="56" rerouteNo="0" devices="tripinfo_NS_36" vType="typeWE" vaporized=""/>
    <tripinfo id="NS_35" depart="100.00" departLane="54o_0" departPos="5.10" departSpeed="0.00" departDelay="0.00" arrival="268.00" arrivalLane="53i_0" arrivalPos="10.00" arrivalSpeed="11.11" duration="168.00" routeLength="998.80" waitSteps="63" rerouteNo="0" devices="tripinfo_NS_35" vType="typeWE" vaporized=""/>
    <tripinfo id="NS_37" depart="109.00" departLane="54o_0" departPos="5.10" departSpeed="0.00" departDelay="2.00" arrival="271.00" arrivalLane="53i_0" arrivalPos="10.00" arrivalSpeed="12.11" duration="162.00" routeLength="998.80" waitSteps="55" rerouteNo="0" devices="tripinfo_NS_37" vType="typeWE" vaporized=""/>
    <tripinfo id="NS_45" depart="121.00" departLane="54o_0" departPos="5.10" departSpeed="0.00" departDelay="3.00" arrival="271.00" arrivalLane="53i_1" arrivalPos="10.00" arrivalSpeed="12.11" duration="150.00" routeLength="998.80" waitSteps="53" rerouteNo="0" devices="tripinfo_NS_45" vType="typeWE" vaporized=""/>
    <tripinfo id="NS_41" depart="114.00" departLane="54o_0" departPos="5.10" departSpeed="0.00" departDelay="0.00" arrival="272.00" arrivalLane="51i_0" arrivalPos="10.00" arrivalSpeed="12.11" duration="158.00" routeLength="998.80" waitSteps="53" rerouteNo="0" devices="tripinfo_NS_41" vType="typeWE" vaporized=""/>
    <tripinfo id="NS_47" depart="125.00" departLane="54o_0" departPos="5.10" departSpeed="0.00" departDelay="2.00" arrival="273.00" arrivalLane="52i_0" arrivalPos="10.00" arrivalSpeed="12.11" duration="148.00" routeLength="998.80" waitSteps="51" rerouteNo="0" devices="tripinfo_NS_47" vType="typeWE" vaporized=""/>
    <tripinfo id="NS_44" depart="117.00" departLane="54o_0" departPos="5.10" departSpeed="0.00" departDelay="1.00" arrival="275.00" arrivalLane="51i_0" arrivalPos="10.00" arrivalSpeed="11.38" duration="158.00" routeLength="998.80" waitSteps="54" rerouteNo="0" devices="tripinfo_NS_44" vType="typeWE" vaporized=""/>
    <tripinfo id="NS_49" depart="129.00" departLane="54o_0" departPos="5.10" departSpeed="0.00" departDelay="4.00" arrival="276.00" arrivalLane="52i_0" arrivalPos="10.00" arrivalSpeed="11.68" duration="147.00" routeLength="998.80" waitSteps="49" rerouteNo="0" devices="tripinfo_NS_49" vType="typeWE" vaporized=""/>
    <tripinfo id="NS_59" depart="161.00" departLane="54o_0" departPos="5.10" departSpeed="0.00" departDelay="0.00" arrival="277.00" arrivalLane="53i_0" arrivalPos="10.00" arrivalSpeed="12.11" duration="116.00" routeLength="998.80" waitSteps="18" rerouteNo="0" devices="tripinfo_NS_59" vType="typeWE" vaporized=""/>
    <tripinfo id="NS_50" depart="133.00" departLane="54o_0" departPos="5.10" departSpeed="0.00" departDelay="4.00" arrival="279.00" arrivalLane="52i_0" arrivalPos="10.00" arrivalSpeed="9.28" duration="146.00" routeLength="998.80" waitSteps="46" rerouteNo="0" devices="tripinfo_NS_50" vType="typeWE" vaporized=""/>
    <tripinfo id="LO_58" depart="156.00" departLane="52o_0" departPos="5.10" departSpeed="0.00" departDelay="0.00" arrival="286.00" arrivalLane="54i_0" arrivalPos="10.00" arrivalSpeed="12.11" duration="130.00" routeLength="998.80" waitSteps="35" rerouteNo="0" devices="tripinfo_LO_58" vType="typeNS" vaporized=""/>
    <tripinfo id="OL_63" depart="191.00" departLane="51o_0" departPos="5.10" departSpeed="0.00" departDelay="1.00" arrival="322.00" arrivalLane="53i_0" arrivalPos="10.00" arrivalSpeed="12.11" duration="131.00" routeLength="998.80" waitSteps="36" rerouteNo="0" devices="tripinfo_OL_63" vType="typeNS" vaporized=""/>
    <tripinfo id="OL_62" depart="188.00" departLane="51o_0" departPos="5.10" departSpeed="0.00" departDelay="0.00" arrival="323.00" arrivalLane="54i_0" arrivalPos="10.00" arrivalSpeed="12.11" duration="135.00" routeLength="998.80" waitSteps="39" rerouteNo="0" devices="tripinfo_OL_62" vType="typeNS" vaporized=""/>
    <tripinfo id="OL_64" depart="196.00" departLane="51o_0" departPos="5.10" departSpeed="0.00" departDelay="0.00" arrival="325.00" arrivalLane="52i_0" arrivalPos="10.00" arrivalSpeed="12.11" duration="129.00" routeLength="998.80" waitSteps="32" rerouteNo="0" devices="tripinfo_OL_64" vType="typeNS" vaporized=""/>
    <tripinfo id="OL_65" depart="199.00" departLane="51o_0" departPos="5.10" departSpeed="0.00" departDelay="0.00" arrival="326.00" arrivalLane="54i_0" arrivalPos="10.00" arrivalSpeed="10.29" duration="127.00" routeLength="998.80" waitSteps="29" rerouteNo="0" devices="tripinfo_OL_65" vType="typeNS" vaporized=""/>
    <tripinfo id="OL_78" depart="238.00" departLane="51o_0" departPos="5.10" departSpeed="0.00" departDelay="0.00" arrival="326.00" arrivalLane="52i_1" arrivalPos="10.00" arrivalSpeed="12.11" duration="88.00" routeLength="998.80" waitSteps="0" rerouteNo="0" devices="tripinfo_OL_78" vType="typeNS" vaporized=""/>
    <tripinfo id="OL_67" depart="203.00" departLane="51o_0" departPos="5.10" departSpeed="0.00" departDelay="0.00" arrival="327.00" arrivalLane="54i_1" arrivalPos="10.00" arrivalSpeed="12.11" duration="124.00" routeLength="998.80" waitSteps="27" rerouteNo="0" devices="tripinfo_OL_67" vType="typeNS" vaporized=""/>
    <tripinfo id="OL_71" depart="223.00" departLane="51o_0" departPos="5.10" departSpeed="0.00" departDelay="0.00" arrival="329.00" arrivalLane="54i_0" arrivalPos="10.00" arrivalSpeed="12.11" duration="106.00" routeLength="998.80" waitSteps="8" rerouteNo="0" devices="tripinfo_OL_71" vType="typeNS" vaporized=""/>
    <tripinfo id="OL_72" depart="226.00" departLane="51o_0" departPos="5.10" departSpeed="0.00" departDelay="2.00" arrival="332.00" arrivalLane="54i_0" arrivalPos="10.00" arrivalSpeed="12.11" duration="106.00" routeLength="998.80" waitSteps="7" rerouteNo="0" devices="tripinfo_OL_72" vType="typeNS" vaporized=""/>
    <tripinfo id="NS_60" depart="164.00" departLane="54o_0" departPos="5.10" departSpeed="0.00" departDelay="0.00" arrival="340.00" arrivalLane="51i_0" arrivalPos="10.00" arrivalSpeed="12.11" duration="176.00" routeLength="998.80" waitSteps="71" rerouteNo="0" devices="tripinfo_NS_60" vType="typeWE" vaporized=""/>
    <tripinfo id="NS_51" depart="137.00" departLane="54o_0" departPos="5.10" departSpeed="0.00" departDelay="4.00" arrival="341.00" arrivalLane="52i_0" arrivalPos="10.00" arrivalSpeed="12.11" duration="204.00" routeLength="998.80" waitSteps="98" rerouteNo="0" devices="tripinfo_NS_51" vType="typeWE" vaporized=""/>
    <tripinfo id="NS_66" depart="203.00" departLane="54o_0" departPos="5.10" departSpeed="0.00" departDelay="0.00" arrival="343.00" arrivalLane="51i_0" arrivalPos="10.00" arrivalSpeed="9.96" duration="140.00" routeLength="998.80" waitSteps="43" rerouteNo="0" devices="tripinfo_NS_66" vType="typeWE" vaporized=""/>
    <tripinfo id="NS_55" depart="147.00" departLane="54o_0" departPos="5.10" departSpeed="0.00" departDelay="0.00" arrival="344.00" arrivalLane="52i_0" arrivalPos="10.00" arrivalSpeed="10.29" duration="197.00" routeLength="998.80" waitSteps="89" rerouteNo="0" devices="tripinfo_NS_55" vType="typeWE" vaporized=""/>
    <tripinfo id="NS_68" depart="210.00" departLane="54o_0" departPos="5.10" departSpeed="0.00" departDelay="0.00" arrival="344.00" arrivalLane="51i_1" arrivalPos="10.00" arrivalSpeed="12.11" duration="134.00" routeLength="998.80" waitSteps="38" rerouteNo="0" devices="tripinfo_NS_68" vType="typeWE" vaporized=""/>
    <tripinfo id="NS_69" depart="215.00" departLane="54o_0" departPos="5.10" departSpeed="0.00" departDelay="0.00" arrival="345.00" arrivalLane="53i_1" arrivalPos="10.00" arrivalSpeed="12.11" duration="130.00" routeLength="998.80" waitSteps="33" rerouteNo="0" devices="tripinfo_NS_69" vType="typeWE" vaporized=""/>
    <tripinfo id="NS_73" depart="229.00" departLane="54o_0" departPos="5.10" departSpeed="0.00" departDelay="0.00" arrival="346.00" arrivalLane="51i_0" arrivalPos="10.00" arrivalSpeed="12.11" duration="117.00" routeLength="998.80" waitSteps="20" rerouteNo="0" devices="tripinfo_NS_73" vType="typeWE" vaporized=""/>
    <tripinfo id="NS_75" depart="233.00" departLane="54o_0" departPos="5.10" departSpeed="0.00" departDelay="0.00" arrival="347.00" arrivalLane="52i_0" arrivalPos="10.00" arrivalSpeed="12.11" duration="114.00" routeLength="998.80" waitSteps="16" rerouteNo="0" devices="tripinfo_NS_75" vType="typeWE" vaporized=""/>
    <tripinfo id="NS_82" depart="245.00" departLane="54o_0" departPos="5.10" departSpeed="0.00" departDelay="0.00" arrival="349.00" arrivalLane="51i_0" arrivalPos="10.00" arrivalSpeed="12.11" duration="104.00" routeLength="998.80" waitSteps="6" rerouteNo="0" devices="tripinfo_NS_82" vType="typeWE" vaporized=""/>
    <tripinfo id="NS_79" depart="240.00" departLane="54o_0" departPos="5.10" departSpeed="0.00" departDelay="0.00" arrival="350.00" arrivalLane="52i_0" arrivalPos="10.00" arrivalSpeed="12.11" duration="110.00" routeLength="998.80" waitSteps="11" rerouteNo="0" devices="tripinfo_NS_79" vType="typeWE" vaporized=""/>
    <tripinfo id="LO_87" depart="265.00" departLane="52o_0" departPos="5.10" departSpeed="0.00" departDelay="0.00" arrival="355.00" arrivalLane="51i_1" arrivalPos="10.00" arrivalSpeed="12.11" duration="90.00" routeLength="998.80" waitSteps="0" rerouteNo="0" devices="tripinfo_LO_87" vType="typeNS" vaporized=""/>
    <tripinfo id="LO_70" depart="221.00" departLane="52o_0" departPos="5.10" departSpeed="0.00" departDelay="0.00" arrival="358.00" arrivalLane="54i_0" arrivalPos="10.00" arrivalSpeed="12.11" duration="137.00" routeLength="998.80" waitSteps="42" rerouteNo="0" devices="tripinfo_LO_70" vType="typeNS" vaporized=""/>
    <tripinfo id="LO_81" depart="243.00" departLane="52o_0" departPos="5.10" departSpeed="0.00" departDelay="0.00" arrival="361.00" arrivalLane="54i_0" arrivalPos="10.00" arrivalSpeed="9.96" duration="118.00" routeLength="998.80" waitSteps="21" rerouteNo="0" devices="tripinfo_LO_81" vType="typeNS" vaporized=""/>
    <tripinfo id="SN_74" depart="230.00" departLane="53o_0" departPos="5.10" departSpeed="0.00" departDelay="0.00" arrival="376.00" arrivalLane="52i_0" arrivalPos="10.00" arrivalSpeed="12.11" duration="146.00" routeLength="998.80" waitSteps="51" rerouteNo="0" devices="tripinfo_SN_74" vType="typeWE" vaporized=""/>
    <tripinfo id="SN_76" depart="234.00" departLane="53o_0" departPos="5.10" departSpeed="0.00" departDelay="0.00" arrival="377.00" arrivalLane="51i_0" arrivalPos="10.00" arrivalSpeed="12.11" duration="143.00" routeLength="998.80" waitSteps="47" rerouteNo="0" devices="tripinfo_SN_76" vType="typeWE" vaporized=""/>
    <tripinfo id="SN_83" depart="245.00" departLane="53o_0" departPos="5.10" departSpeed="0.00" departDelay="0.00" arrival="379.00" arrivalLane="54i_0" arrivalPos="10.00" arrivalSpeed="12.11" duration="134.00" routeLength="998.80" waitSteps="37" rerouteNo="0" devices="tripinfo_SN_83" vType="typeWE" vaporized=""/>
    <tripinfo id="SN_88" depart="269.00" departLane="53o_0" departPos="5.10" departSpeed="0.00" departDelay="0.00" arrival="380.00" arrivalLane="52i_0" arrivalPos="10.00" arrivalSpeed="12.11" duration="111.00" routeLength="998.80" waitSteps="15" rerouteNo="0" devices="tripinfo_SN_88" vType="typeWE" vaporized=""/>
    <tripinfo id="SN_77" depart="237.00" departLane="53o_0" departPos="5.10" departSpeed="0.00" departDelay="0.00" arrival="380.00" arrivalLane="51i_0" arrivalPos="10.00" arrivalSpeed="10.29" duration="143.00" routeLength="998.80" waitSteps="45" rerouteNo="0" devices="tripinfo_SN_77" vType="typeWE" vaporized=""/>
    <tripinfo id="SN_80" depart="242.00" departLane="53o_0" departPos="5.10" departSpeed="0.00" departDelay="0.00" arrival="381.00" arrivalLane="51i_1" arrivalPos="10.00" arrivalSpeed="12.11" duration="139.00" routeLength="998.80" waitSteps="42" rerouteNo="0" devices="tripinfo_SN_80" vType="typeWE" vaporized=""/>
    <tripinfo id="SN_91" depart="273.00" departLane="53o_0" departPos="5.10" departSpeed="0.00" departDelay="0.00" arrival="383.00" arrivalLane="54i_0" arrivalPos="10.00" arrivalSpeed="12.11" duration="110.00" routeLength="998.80" waitSteps="13" rerouteNo="0" devices="tripinfo_SN_91" vType="typeWE" vaporized=""/>
    <tripinfo id="SN_84" depart="260.00" departLane="53o_0" departPos="5.10" departSpeed="0.00" departDelay="0.00" arrival="383.00" arrivalLane="51i_0" arrivalPos="10.00" arrivalSpeed="12.11" duration="123.00" routeLength="998.80" waitSteps="25" rerouteNo="0" devices="tripinfo_SN_84" vType="typeWE" vaporized=""/>
    <tripinfo id="SN_86" depart="263.00" departLane="53o_0" departPos="5.10" departSpeed="0.00" departDelay="0.00" arrival="386.00" arrivalLane="51i_0" arrivalPos="10.00" arrivalSpeed="12.11" duration="123.00" routeLength="998.80" waitSteps="24" rerouteNo="0" devices="tripinfo_SN_86" vType="typeWE" vaporized=""/>
    <tripinfo id="OL_97" depart="295.00" departLane="51o_0" departPos="5.10" departSpeed="0.00" departDelay="0.00" arrival="394.00" arrivalLane="52i_1" arrivalPos="10.00" arrivalSpeed="11.11" duration="99.00" routeLength="998.80" waitSteps="4" rerouteNo="0" devices="tripinfo_OL_97" vType="typeNS" vaporized=""/>
    <tripinfo id="OL_89" depart="269.00" departLane="51o_0" departPos="5.10" departSpeed="0.00" departDelay="0.00" arrival="394.00" arrivalLane="52i_0" arrivalPos="10.00" arrivalSpeed="11.11" duration="125.00" routeLength="998.80" waitSteps="30" rerouteNo="0" devices="tripinfo_OL_89" vType="typeNS" vaporized=""/>
    <tripinfo id="OL_93" depart="286.00" departLane="51o_0" departPos="5.10" departSpeed="0.00" departDelay="0.00" arrival="396.00" arrivalLane="53i_0" arrivalPos="10.00" arrivalSpeed="12.11" duration="110.00" routeLength="998.80" waitSteps="14" rerouteNo="0" devices="tripinfo_OL_93" vType="typeNS" vaporized=""/>